 Gaussian 16, Revision C.01,
 Gaussian 16:  ES64L-G16RevC.01  3-Jul-2019

 ----------------------------------------------------------------------
 #P B3LYP/ChkBasis TD(50-50, Nstates=5) 6D 10F Geom=Check Guess=Read IO
 P(9/40=4)
 ----------------------------------------------------------------------

 --
 S0
 --
 Structure from the checkpoint file:  "TD.chk"
 Charge =  0 Multiplicity = 1

                         Standard orientation:
 ---------------------------------------------------------------------
 Center     Atomic      Atomic             Coordinates (Angstroms)
 Number     Number       Type             X           Y           Z
 ---------------------------------------------------------------------
      1          6           0        0.000000    0.000000    0.185211
      2          8           0        0.000000    0.000000    1.400970
      3          6           0       -0.000000    1.293049   -0.614714
      4          1           0        0.000000    2.148609    0.063398
      5          1           0        0.880924    1.341481   -1.267314
      6          1           0       -0.880924    1.341481   -1.267314
      7          6           0       -0.000000   -1.293049   -0.614714
      8          1           0       -0.880924   -1.341481   -1.267314
      9          1           0        0.880924   -1.341481   -1.267314
     10          1           0       -0.000000   -2.148609    0.063398
 ---------------------------------------------------------------------

 SCF Done:  E(RB3LYP) =  -193.155692850     A.U. after    1 cycles

 Excitation energies and oscillator strengths:

 Excited State   1:      Triplet-A2     3.7353 eV  331.93 nm  f=0.0000  <S**2>=2.000
       5 -> 22         0.00039
       5 -> 29        -0.00045
       5 -> 47        -0.00171
       5 -> 53        -0.00524
       5 -> 58         0.00203
       5 -> 63        -0.00141
       6 -> 22         0.00174
       6 -> 29        -0.00089
       6 -> 39        -0.00078
       6 -> 47        -0.00197
       6 -> 53         0.00219
       6 -> 58        -0.00205
       6 -> 63         0.00094
       7 -> 17        -0.00458
       7 -> 21        -0.00087
       7 -> 28        -0.00163
       7 -> 33         0.00108
       7 -> 37        -0.00077
       7 -> 44         0.00107
       7 -> 49         0.00192
       7 -> 56        -0.00045
       7 -> 61        -0.00055
       7 -> 65         0.00047
       8 -> 22         0.00512
       8 -> 29        -0.00128
       8 -> 39        -0.00199
       8 -> 47        -0.00179
       8 -> 53         0.00333
       8 -> 58        -0.00207
       8 -> 63         0.00127
       9 -> 20         0.00022
       9 -> 23         0.00097
       9 -> 25         0.00090
       9 -> 30         0.00177
       9 -> 34         0.00151
       9 -> 35         0.00076
       9 -> 40         0.00128
       9 -> 43        -0.00022
       9 -> 45        -0.00105
       9 -> 48        -0.00024
       9 -> 52        -0.00145
       9 -> 54        -0.00058
       9 -> 62        -0.00016
       9 -> 68         0.00046
      10 -> 17         0.03195
      10 -> 21         0.00839
      10 -> 28        -0.00024
      10 -> 33         0.00227
      10 -> 37        -0.00585
      10 -> 44         0.00658
      10 -> 49         0.00457
      10 -> 56        -0.00109
      10 -> 61        -0.00042
      10 -> 65         0.00068
      11 -> 29        -0.00049
      11 -> 39         0.00027
      11 -> 47        -0.00159
      11 -> 53        -0.00312
      11 -> 58         0.00095
      11 -> 63        -0.00056
      12 -> 18         0.00241
      12 -> 19         0.00223
      12 -> 24        -0.00153
      12 -> 26        -0.00020
      12 -> 27         0.00052
      12 -> 36         0.00085
      12 -> 41        -0.00048
      12 -> 42        -0.00090
      12 -> 46        -0.00033
      12 -> 50         0.00018
      12 -> 51        -0.00035
      12 -> 55        -0.00013
      12 -> 57         0.00019
      12 -> 64         0.00034
      13 -> 22         0.00626
      13 -> 29        -0.00178
      13 -> 39        -0.00154
      13 -> 47        -0.00257
      13 -> 53        -0.00228
      13 -> 58         0.00039
      13 -> 63        -0.00031
      14 -> 17        -0.01944
      14 -> 21        -0.00259
      14 -> 28         0.00145
      14 -> 33        -0.00161
      14 -> 37         0.00258
      14 -> 44        -0.00392
      14 -> 49        -0.00309
      14 -> 56         0.00079
      14 -> 61         0.00037
      14 -> 65        -0.00061
      15 -> 20        -0.00690
      15 -> 23        -0.00199
      15 -> 25         0.00604
      15 -> 30         0.00572
      15 -> 34         0.00303
      15 -> 35         0.00270
      15 -> 40         0.00136
      15 -> 43         0.00114
      15 -> 45        -0.00355
      15 -> 48        -0.00049
      15 -> 52        -0.00146
      15 -> 54        -0.00096
      15 -> 60        -0.00029
      15 -> 62        -0.00064
      15 -> 68         0.00062
      15 -> 71        -0.00010
      16 -> 17         0.70544
      16 -> 21         0.04240
      16 -> 28         0.00667
      16 -> 33         0.00084
      16 -> 37        -0.00770
      16 -> 44         0.01872
      16 -> 49         0.00341
      16 -> 56        -0.00253
      16 -> 61         0.00043
       5 <- 22         0.00063
       5 <- 29        -0.00055
       5 <- 47        -0.00179
       5 <- 53        -0.00454
       5 <- 58         0.00159
       5 <- 63        -0.00111
       6 <- 22         0.00081
       6 <- 29        -0.00025
       6 <- 39        -0.00055
       6 <- 47        -0.00117
       6 <- 53         0.00214
       6 <- 58        -0.00161
       6 <- 63         0.00069
       7 <- 17        -0.00048
       7 <- 21        -0.00014
       7 <- 28        -0.00060
       7 <- 33         0.00032
       7 <- 37        -0.00020
       7 <- 44         0.00048
       7 <- 49         0.00087
       7 <- 61        -0.00044
       7 <- 65         0.00030
       8 <- 22         0.00252
       8 <- 29        -0.00037
       8 <- 39        -0.00150
       8 <- 47        -0.00111
       8 <- 53         0.00330
       8 <- 58        -0.00175
       8 <- 63         0.00102
       9 <- 20        -0.00074
       9 <- 23         0.00035
       9 <- 25         0.00100
       9 <- 30         0.00339
       9 <- 34         0.00212
       9 <- 35         0.00149
       9 <- 40         0.00175
       9 <- 43         0.00032
       9 <- 45        -0.00146
       9 <- 48        -0.00038
       9 <- 52        -0.00229
       9 <- 54        -0.00119
       9 <- 62        -0.00037
       9 <- 68         0.00053
      10 <- 17         0.00329
      10 <- 21         0.00222
      10 <- 28        -0.00038
      10 <- 33         0.00078
      10 <- 37        -0.00247
      10 <- 44         0.00214
      10 <- 49         0.00180
      10 <- 56        -0.00011
      10 <- 61        -0.00034
      10 <- 65         0.00034
      11 <- 29        -0.00041
      11 <- 39         0.00031
      11 <- 47        -0.00136
      11 <- 53        -0.00299
      11 <- 58         0.00095
      11 <- 63        -0.00055
      12 <- 18         0.00094
      12 <- 19         0.00117
      12 <- 24        -0.00161
      12 <- 26        -0.00029
      12 <- 27         0.00030
      12 <- 31        -0.00012
      12 <- 32        -0.00020
      12 <- 36         0.00083
      12 <- 41        -0.00026
      12 <- 42        -0.00060
      12 <- 46        -0.00010
      12 <- 50         0.00018
      12 <- 51        -0.00045
      12 <- 55        -0.00019
      12 <- 57         0.00030
      12 <- 64         0.00029
      12 <- 66        -0.00012
      13 <- 22         0.00284
      13 <- 29        -0.00086
      13 <- 39        -0.00097
      13 <- 47        -0.00182
      13 <- 53        -0.00212
      13 <- 58         0.00061
      13 <- 63        -0.00043
      14 <- 17        -0.00237
      14 <- 21        -0.00022
      14 <- 28         0.00081
      14 <- 33        -0.00054
      14 <- 37         0.00074
      14 <- 44        -0.00136
      14 <- 49        -0.00126
      14 <- 56         0.00019
      14 <- 61         0.00030
      14 <- 65        -0.00035
      15 <- 20        -0.00742
      15 <- 23        -0.00255
      15 <- 25         0.00953
      15 <- 30         0.00977
      15 <- 34         0.00465
      15 <- 35         0.00431
      15 <- 40         0.00272
      15 <- 43         0.00156
      15 <- 45        -0.00618
      15 <- 48        -0.00056
      15 <- 52        -0.00290
      15 <- 54        -0.00163
      15 <- 60        -0.00041
      15 <- 62        -0.00120
      15 <- 68         0.00070
      15 <- 71        -0.00013
      16 <- 17         0.03679
      16 <- 21         0.00387
      16 <- 33         0.00118
      16 <- 37        -0.00175
      16 <- 44         0.00550
      16 <- 49         0.00056
      16 <- 56        -0.00115
      16 <- 61         0.00033
      16 <- 65        -0.00010
 This state for optimization and/or second-order correction.
 Total Energy, E(TD-HF/TD-DFT) =  -193.018423662
 Copying the excited state density for this state as the 1-particle RhoCI density.

 Excited State   2:      Singlet-A2     4.4029 eV  281.60 nm  f=0.0000  <S**2>=0.000
       5 -> 22        -0.00153
       5 -> 29         0.00116
       5 -> 47         0.00227
       5 -> 53         0.00344
       5 -> 58        -0.00044
       6 -> 22        -0.00122
       6 -> 29        -0.00084
       6 -> 53        -0.00130
       6 -> 58         0.00013
       6 -> 63         0.00012
       7 -> 17        -0.00468
       7 -> 21        -0.00340
       7 -> 28        -0.00084
       7 -> 33         0.00097
       7 -> 37        -0.00052
       7 -> 44         0.00052
       7 -> 49         0.00097
       7 -> 56        -0.00088
       7 -> 61         0.00033
       7 -> 65         0.00024
       8 -> 22         0.00048
       8 -> 29        -0.00014
       8 -> 39         0.00071
       8 -> 47         0.00057
       8 -> 53        -0.00143
       8 -> 58         0.00055
       8 -> 63        -0.00044
       9 -> 20        -0.00151
       9 -> 23        -0.00192
       9 -> 25        -0.00334
       9 -> 30         0.00094
       9 -> 34         0.00077
       9 -> 40        -0.00140
       9 -> 43         0.00101
       9 -> 45         0.00062
       9 -> 52         0.00013
       9 -> 54        -0.00080
       9 -> 60         0.00068
      10 -> 17         0.02853
      10 -> 21         0.00284
      10 -> 28        -0.00102
      10 -> 33         0.00090
      10 -> 37        -0.00113
      10 -> 44         0.00428
      10 -> 49         0.00298
      10 -> 56        -0.00149
      10 -> 61         0.00052
      10 -> 65         0.00029
      11 -> 22         0.00297
      11 -> 29        -0.00147
      11 -> 39        -0.00086
      11 -> 47         0.00088
      11 -> 53         0.00090
      11 -> 58        -0.00141
      11 -> 63         0.00048
      12 -> 18        -0.00240
      12 -> 19        -0.00529
      12 -> 24        -0.00472
      12 -> 26         0.00027
      12 -> 27        -0.00296
      12 -> 31        -0.00120
      12 -> 36        -0.00082
      12 -> 41         0.00030
      12 -> 42         0.00200
      12 -> 46         0.00052
      12 -> 50         0.00029
      12 -> 51        -0.00048
      12 -> 55        -0.00038
      12 -> 59        -0.00061
      12 -> 64         0.00040
      13 -> 22        -0.00339
      13 -> 29         0.00095
      13 -> 39         0.00120
      13 -> 47        -0.00049
      13 -> 53         0.00107
      13 -> 58        -0.00054
      13 -> 63         0.00092
      14 -> 17        -0.01027
      14 -> 21        -0.00393
      14 -> 28        -0.00103
      14 -> 33        -0.00230
      14 -> 37         0.00240
      14 -> 44        -0.00146
      14 -> 49        -0.00093
      14 -> 56         0.00171
      14 -> 61         0.00021
      14 -> 65        -0.00040
      15 -> 20         0.00403
      15 -> 23         0.00098
      15 -> 25         0.00124
      15 -> 30        -0.00123
      15 -> 34        -0.00036
      15 -> 35         0.00012
      15 -> 40         0.00148
      15 -> 43        -0.00043
      15 -> 45         0.00130
      15 -> 52         0.00026
      15 -> 60        -0.00025
      16 -> 17         0.70549
      16 -> 21         0.03868
      16 -> 28         0.00754
      16 -> 33        -0.00195
      16 -> 37        -0.00643
      16 -> 44         0.01100
      16 -> 49         0.00304
      16 -> 56        -0.00053
      16 -> 61        -0.00039
       5 <- 22        -0.00081
       5 <- 29         0.00076
       5 <- 47         0.00168
       5 <- 53         0.00326
       5 <- 58        -0.00067
       5 <- 63         0.00027
       6 <- 22        -0.00134
       6 <- 29        -0.00015
       6 <- 39         0.00014
       6 <- 47         0.00056
       6 <- 53        -0.00094
       6 <- 58         0.00037
       7 <- 21        -0.00177
       7 <- 28         0.00011
       7 <- 33         0.00016
       7 <- 56        -0.00044
       7 <- 61         0.00034
       8 <- 22        -0.00054
       8 <- 29         0.00057
       8 <- 39         0.00067
       8 <- 47         0.00094
       8 <- 53        -0.00085
       8 <- 58         0.00061
       8 <- 63        -0.00052
       9 <- 20        -0.00164
       9 <- 23        -0.00128
       9 <- 25        -0.00163
       9 <- 30         0.00289
       9 <- 34         0.00159
       9 <- 35         0.00101
       9 <- 40        -0.00028
       9 <- 43         0.00132
       9 <- 45        -0.00014
       9 <- 48        -0.00017
       9 <- 52        -0.00099
       9 <- 54        -0.00142
       9 <- 60         0.00053
       9 <- 62        -0.00021
       9 <- 68         0.00012
      10 <- 17        -0.00056
      10 <- 21        -0.00138
      10 <- 28        -0.00090
      10 <- 33        -0.00039
      10 <- 37         0.00143
      10 <- 49         0.00020
      10 <- 56        -0.00037
      10 <- 61         0.00050
      11 <- 22         0.00153
      11 <- 29        -0.00108
      11 <- 39        -0.00054
      11 <- 47         0.00073
      11 <- 53         0.00052
      11 <- 58        -0.00112
      11 <- 63         0.00039
      12 <- 18        -0.00135
      12 <- 19        -0.00274
      12 <- 24        -0.00331
      12 <- 27        -0.00205
      12 <- 31        -0.00097
      12 <- 32        -0.00019
      12 <- 36        -0.00040
      12 <- 41         0.00034
      12 <- 42         0.00164
      12 <- 46         0.00060
      12 <- 50         0.00027
      12 <- 51        -0.00056
      12 <- 55        -0.00041
      12 <- 57         0.00016
      12 <- 59        -0.00054
      12 <- 64         0.00034
      13 <- 22        -0.00256
      13 <- 29         0.00113
      13 <- 39         0.00116
      13 <- 53         0.00079
      13 <- 58        -0.00018
      13 <- 63         0.00065
      14 <- 17         0.00203
      14 <- 21        -0.00066
      14 <- 28        -0.00096
      14 <- 33        -0.00092
      14 <- 37         0.00041
      14 <- 44         0.00076
      14 <- 49         0.00071
      14 <- 56         0.00092
      14 <- 61         0.00014
      14 <- 65        -0.00014
      15 <- 20        -0.00202
      15 <- 23        -0.00109
      15 <- 25         0.00677
      15 <- 30         0.00518
      15 <- 34         0.00224
      15 <- 35         0.00248
      15 <- 40         0.00286
      15 <- 43         0.00040
      15 <- 45        -0.00248
      15 <- 48        -0.00017
      15 <- 52        -0.00153
      15 <- 54        -0.00087
      15 <- 60        -0.00038
      15 <- 62        -0.00068
      15 <- 68         0.00012
      16 <- 17        -0.02098
      16 <- 21        -0.00102
      16 <- 33        -0.00073
      16 <- 37        -0.00031
      16 <- 44        -0.00156
      16 <- 56         0.00068
      16 <- 61        -0.00040
      16 <- 65        -0.00026

 Excited State   3:      Triplet-A1     5.5545 eV  223.22 nm  f=0.0000  <S**2>=2.000
       5 -> 18        -0.00345
       5 -> 19        -0.00386
       5 -> 24         0.00834
       5 -> 26         0.01299
       5 -> 27         0.00265
       5 -> 31        -0.00144
       5 -> 32        -0.01110
       5 -> 36        -0.00136
       5 -> 38         0.00134
       5 -> 41         0.00014
       5 -> 42        -0.00062
       5 -> 46        -0.00184
       5 -> 50         0.00235
       5 -> 51         0.00126
       5 -> 55        -0.00518
       5 -> 57         0.00441
       5 -> 59         0.00066
       5 -> 64        -0.00165
       5 -> 66         0.00248
       5 -> 67         0.00209
       5 -> 70        -0.00025
       5 -> 72         0.00023
       6 -> 18        -0.00174
       6 -> 19        -0.00090
       6 -> 24         0.00805
       6 -> 26        -0.00038
       6 -> 27         0.00236
       6 -> 31        -0.00263
       6 -> 32         0.00088
       6 -> 36        -0.00252
       6 -> 38        -0.00114
       6 -> 41         0.00156
       6 -> 42         0.00091
       6 -> 46         0.00237
       6 -> 50        -0.00107
       6 -> 51        -0.00224
       6 -> 55         0.00205
       6 -> 57         0.00147
       6 -> 59        -0.00066
       6 -> 64        -0.00163
       6 -> 66        -0.00097
       6 -> 67        -0.00077
       6 -> 69         0.00012
       6 -> 70         0.00023
       7 -> 20        -0.00257
       7 -> 23        -0.00164
       7 -> 25         0.00284
       7 -> 30         0.00249
       7 -> 34        -0.00146
       7 -> 35         0.00030
       7 -> 40        -0.00063
       7 -> 43         0.00133
       7 -> 45        -0.00063
       7 -> 48        -0.00017
       7 -> 52         0.00017
       7 -> 54        -0.00010
       7 -> 62         0.00061
       8 -> 18         0.00024
       8 -> 19        -0.00230
       8 -> 24         0.01804
       8 -> 26         0.00416
       8 -> 27         0.00547
       8 -> 31        -0.00415
       8 -> 32        -0.00370
       8 -> 36        -0.00121
       8 -> 38        -0.00344
       8 -> 41         0.00085
       8 -> 42        -0.00138
       8 -> 46         0.00280
       8 -> 50        -0.00084
       8 -> 51        -0.00425
       8 -> 55         0.00261
       8 -> 57         0.00274
       8 -> 59        -0.00113
       8 -> 64        -0.00266
       8 -> 66        -0.00068
       8 -> 67        -0.00145
       8 -> 69         0.00017
       8 -> 70         0.00030
       9 -> 17         0.16403
       9 -> 21         0.03217
       9 -> 28         0.01473
       9 -> 33        -0.00305
       9 -> 37        -0.00864
       9 -> 44         0.01038
       9 -> 49         0.00253
       9 -> 56         0.00124
       9 -> 61        -0.00017
       9 -> 65         0.00185
      10 -> 20         0.00030
      10 -> 23        -0.00062
      10 -> 25         0.01006
      10 -> 30         0.00507
      10 -> 34        -0.00053
      10 -> 40         0.00230
      10 -> 43        -0.00084
      10 -> 45        -0.00110
      10 -> 48         0.00112
      10 -> 52        -0.00066
      10 -> 54        -0.00018
      10 -> 60         0.00062
      10 -> 62         0.00063
      10 -> 68         0.00035
      10 -> 71         0.00014
      11 -> 18        -0.00156
      11 -> 19         0.00141
      11 -> 24        -0.00171
      11 -> 26        -0.00101
      11 -> 27        -0.00012
      11 -> 32         0.00404
      11 -> 36        -0.00031
      11 -> 38         0.00360
      11 -> 41        -0.00075
      11 -> 42         0.00188
      11 -> 46        -0.00152
      11 -> 50        -0.00063
      11 -> 51         0.00265
      11 -> 55        -0.00205
      11 -> 57         0.00112
      11 -> 59         0.00011
      11 -> 64         0.00035
      11 -> 66         0.00044
      11 -> 67         0.00184
      11 -> 69        -0.00016
      12 -> 22         0.01059
      12 -> 29        -0.00145
      12 -> 39        -0.00346
      12 -> 47         0.00021
      12 -> 53         0.00049
      12 -> 58         0.00093
      12 -> 63        -0.00028
      13 -> 18         0.00407
      13 -> 19         0.00668
      13 -> 24         0.00202
      13 -> 26        -0.00243
      13 -> 27         0.00190
      13 -> 31        -0.00119
      13 -> 32         0.00560
      13 -> 36         0.00209
      13 -> 38         0.00318

 The electronic state is 1-A1.
 Alpha  occ. eigenvalues --  -19.13579 -10.27765 -10.19077 -10.19076  -1.03555
 Alpha  occ. eigenvalues --   -0.76695  -0.70974  -0.53082  -0.45786  -0.45756
 Alpha  occ. eigenvalues --   -0.44772  -0.40399  -0.39295  -0.37853  -0.34694
 Alpha  occ. eigenvalues --   -0.24418
 Alpha virt. eigenvalues --   -0.01117   0.08793   0.13745   0.14816   0.16106
 Alpha virt. eigenvalues --    0.17078   0.18038   0.19820   0.29024   0.32349
 Alpha virt. eigenvalues --    0.49211   0.53668   0.56476   0.57375   0.57614

 Mulliken charges:
               1
     1  C    0.452764
     2  O   -0.426342
     3  C   -0.526111
     4  H    0.180410
     5  H    0.166245
     6  H    0.166245
     7  C   -0.526111
     8  H    0.166245
     9  H    0.166245
    10  H    0.180410
 Sum of Mulliken charges =  -0.00000

 Dipole moment (field-independent basis, Debye):
    X=              0.0000    Y=             -0.0000    Z=             -2.8161  Tot=              2.8161
 Quadrupole moment (field-independent basis, Debye-Ang):
   XX=            -23.8863   YY=            -23.4897   ZZ=            -28.2027
   XY=             -0.0000   XZ=             -0.0000   YZ=              0.0000

 Normal termination of Gaussian 16 at Fri Mar 29 21:31:49 2024.
