 Gaussian 16, Revision C.01,
 Gaussian 16:  ES64L-G16RevC.01  3-Jul-2019

 ----------------------------------------------------------------------
 #P B3LYP/ChkBasis TD(50-50, Nstates=5) 6D 10F Geom=Check Guess=Read IO
 P(9/40=4)
 ----------------------------------------------------------------------

 --
 S0
 --
 Structure from the checkpoint file:  "TD.chk"
 Charge =  0 Multiplicity = 1

                         Standard orientation:
 ---------------------------------------------------------------------
 Center     Atomic      Atomic             Coordinates (Angstroms)
 Number     Number       Type             X           Y           Z
 ---------------------------------------------------------------------
      1          1           0        0.000000    0.000000    0.371394
      2          1           0        0.000000    0.000000   -0.371394
 ---------------------------------------------------------------------

 SCF Done:  E(RB3LYP) =  -1.17548240892     A.U. after    1 cycles

 Excitation energies and oscillator strengths:

 Excited State   1:      Triplet-SGU   10.5819 eV  117.17 nm  f=0.0000  <S**2>=2.000
       1 ->  2         0.70751
       1 ->  4        -0.06330
       1 <-  2         0.06004
       1 <-  4        -0.03119
 This state for optimization and/or second-order correction.
 Total Energy, E(TD-HF/TD-DFT) = -0.786603458543
 Copying the excited state density for this state as the 1-particle RhoCI density.

 Excited State   2:      Singlet-SGU   14.7487 eV   84.06 nm  f=0.6156  <S**2>=0.000
       1 ->  2         0.70797
       1 ->  4         0.05312
       1 <-  2        -0.05629
       1 <-  4         0.02964

 Excited State   3:      Triplet-SGG   23.1388 eV   53.58 nm  f=0.0000  <S**2>=2.000
       1 ->  3         0.70783
       1 <-  3         0.03199

 Excited State   4:      Singlet-SGG   28.4932 eV   43.51 nm  f=0.0000  <S**2>=0.000
       1 ->  3         0.70833
       1 <-  3        -0.04163

 Excited State   5:      Triplet-SGU   35.5849 eV   34.84 nm  f=0.0000  <S**2>=2.000
       1 ->  2         0.05970
       1 ->  4         0.70577
       1 <-  2        -0.02302
       1 <-  4         0.03376

 Excited State   6:      Singlet-SGU   42.2899 eV   29.32 nm  f=0.0728  <S**2>=0.000
       1 ->  2        -0.05705
       1 ->  4         0.70629
       1 <-  2         0.03621
       1 <-  4        -0.02803

 The electronic state is 1-SGG.
 Alpha  occ. eigenvalues --   -0.43396
 Alpha virt. eigenvalues --    0.10009   0.58138   1.10720

 Mulliken charges:
               1
     1  H   -0.000000
     2  H   -0.000000
 Sum of Mulliken charges =  -0.00000

 Dipole moment (field-independent basis, Debye):
    X=             -0.0000    Y=             -0.0000    Z=             -0.0000  Tot=              0.0000
 Quadrupole moment (field-independent basis, Debye-Ang):
   XX=             -2.0100   YY=             -2.0100   ZZ=             -1.5856
   XY=              0.0000   XZ=             -0.0000   YZ=             -0.0000

 Normal termination of Gaussian 16 at Sun Apr 14 22:50:21 2024.
