 Gaussian 16, Revision C.01,
 Gaussian 16:  ES64L-G16RevC.01  3-Jul-2019

 -----------------------------------------------------------
 #P B3LYP/ChkBasis 6D 10F Freq=HPModes Geom=Check Guess=Read
 -----------------------------------------------------------

 --
 S0
 --
 Structure from the checkpoint file:  "freq.chk"
 Charge =  0 Multiplicity = 1

                         Standard orientation:
 ---------------------------------------------------------------------
 Center     Atomic      Atomic             Coordinates (Angstroms)
 Number     Number       Type             X           Y           Z
 ---------------------------------------------------------------------
      1          6           0        0.000000    0.000000    0.665359
      2          6           0        0.000000    0.000000   -0.665359
      3          1           0       -0.000000    0.922847    1.240296
      4          1           0       -0.000000   -0.922847    1.240296
      5          1           0       -0.000000   -0.922847   -1.240296
      6          1           0        0.000000    0.922847   -1.240296
 ---------------------------------------------------------------------

 SCF Done:  E(RB3LYP) =  -78.5874578398     A.U. after    1 cycles

 The electronic state is 1-AG.
 Alpha  occ. eigenvalues --  -10.18424 -10.18335  -0.75478  -0.57750  -0.46454
 Alpha  occ. eigenvalues --   -0.41669  -0.35310  -0.26667
 Alpha virt. eigenvalues --    0.01881   0.12257   0.14024   0.15756   0.24412
 Alpha virt. eigenvalues --    0.33263   0.48036   0.54843   0.56812   0.63728
 Alpha virt. eigenvalues --    0.65546   0.69905   0.84753   0.87229   0.93210

 Mulliken charges:
               1
     1  C   -0.285496
     2  C   -0.285496
     3  H    0.142748
     4  H    0.142748
     5  H    0.142748
     6  H    0.142748
 Sum of Mulliken charges =   0.00000

 Dipole moment (field-independent basis, Debye):
    X=             -0.0000    Y=             -0.0000    Z=              0.0000  Tot=              0.0000
 Quadrupole moment (field-independent basis, Debye-Ang):
   XX=            -15.0296   YY=            -12.1241   ZZ=            -11.9889
   XY=              0.0000   XZ=             -0.0000   YZ=             -0.0000

  Exact polarizability:       8.509       0.000      20.392      -0.000      -0.000      30.789
 Approx polarizability:      11.014       0.000      25.255      -0.000      -0.000      46.725

                      1                      2                      3
                     B2U                    B2G                    B3U
 Frequencies --    833.1738               955.8237               976.0545
 Red. masses --      1.0428                 1.5215                 1.1607
 Frc consts  --      0.4265                 0.8190                 0.6515
 IR Inten    --      0.7533                 0.0000                82.8840

                      4                      5                      6
                     AU                     B3G                    AG
 Frequencies --   1069.3770              1247.0038              1396.0851
 Red. masses --      1.0078                 1.5261                 1.2259
 Frc consts  --      0.6790                 1.3982                 1.4077
 IR Inten    --      0.0000                 0.0000                 0.0000

                      7                      8                      9
                     B1U                    AG                     B1U
 Frequencies --   1494.7057              1720.9675              3153.8565
 Red. masses --      1.1118                 3.1168                 1.0478
 Frc consts  --      1.4635                 5.4388                 6.1409
 IR Inten    --      5.2411                 0.0000                18.7589

                     10                     11                     12
                     AG                     B3G                    B2U
 Frequencies --   3169.3478              3223.5724              3249.0896
 Red. masses --      1.0739                 1.1149                 1.1175
 Frc consts  --      6.3554                 6.8259                 6.9507
 IR Inten    --      0.0000                 0.0000                33.6561

 - Thermochemistry -
 -------------------
 Temperature   298.150 Kelvin.  Pressure   1.00000 Atm.
 Atom     1 has atomic number  6 and mass  12.00000

 Molecular mass:    28.03130 amu.
 Principal axes and moments of inertia in atomic units:
                           1         2         3
     Eigenvalues --    12.26033  60.08795  72.34828
           X            0.00000  -0.00000   1.00000
           Y            0.00000   1.00000   0.00000
           Z            1.00000  -0.00000  -0.00000
 This molecule is an asymmetric top.
 Rotational symmetry number  4.
 Rotational temperatures (Kelvin)      7.06457     1.44145     1.19718
 Rotational constants (GHZ):         147.20166    30.03499    24.94518
 Zero-point vibrational energy     134514.4 (Joules/Mol)
                                   32.14972 (Kcal/Mol)
 Vibrational temperatures:   1198.75  1375.22  1404.32  1538.60  1794.16
          (Kelvin)           2008.66  2150.55  2476.09  4537.70  4559.98
                             4638.00  4674.72

 Zero-point correction=                           0.051234 (Hartree/Particle)
 Thermal correction to Energy=                    0.054276
 Thermal correction to Enthalpy=                  0.055221
 Thermal correction to Gibbs Free Energy=         0.030359
 Sum of electronic and zero-point Energies=            -78.536224
 Sum of electronic and thermal Energies=               -78.533181
 Sum of electronic and thermal Enthalpies=             -78.532237
 Sum of electronic and thermal Free Energies=          -78.557099

                     E (Thermal)             CV                S
                      KCal/Mol        Cal/Mol-Kelvin    Cal/Mol-Kelvin
 Total                   34.059              8.093             52.325
 Electronic               0.000              0.000              0.000
 Translational            0.889              2.981             35.927
 Rotational               0.889              2.981             15.862
 Vibrational             32.281              2.131              0.536

 Optimization completed.
    -- Stationary point found.
 Normal termination of Gaussian 16 at Sat Apr  6 18:27:51 2024.
