 Gaussian 16, Revision C.01,
 Gaussian 16:  ES64L-G16RevC.01  3-Jul-2019

 ----------------------------------------------------------------------
 #P B3LYP/ChkBasis TD(50-50, Nstates=5) 6D 10F Geom=Check Guess=Read IO
 P(9/40=4)
 ----------------------------------------------------------------------

 --
 S0
 --
 Structure from the checkpoint file:  "TD.chk"
 Charge =  0 Multiplicity = 1

                         Standard orientation:
 ---------------------------------------------------------------------
 Center     Atomic      Atomic             Coordinates (Angstroms)
 Number     Number       Type             X           Y           Z
 ---------------------------------------------------------------------
      1          6           0       -0.000000    0.000000    0.665359
      2          6           0        0.000000   -0.000000   -0.665359
      3          1           0        0.000000    0.922847    1.240296
      4          1           0       -0.000000   -0.922847    1.240296
      5          1           0       -0.000000   -0.922847   -1.240296
      6          1           0        0.000000    0.922847   -1.240296
 ---------------------------------------------------------------------

 SCF Done:  E(RB3LYP) =  -78.5874578398     A.U. after    1 cycles

 Excitation energies and oscillator strengths:

 Excited State   1:      Triplet-B1U    4.1012 eV  302.31 nm  f=0.0000  <S**2>=2.000
       3 -> 12         0.02126
       3 -> 14         0.01069
       3 -> 20         0.01730
       3 -> 23        -0.00581
       3 -> 25        -0.00203
       3 -> 33        -0.00707
       3 -> 36        -0.00222
       3 -> 38        -0.00015
       4 -> 10         0.02219
       4 -> 15        -0.00343
       4 -> 19         0.00915
       4 -> 24        -0.00780
       4 -> 30         0.00675
       4 -> 32        -0.00393
       4 -> 37         0.00016
       5 -> 13         0.01195
       5 -> 22        -0.00506
       5 -> 26         0.00443
       5 -> 35         0.00039
       6 -> 12         0.00613
       6 -> 14        -0.01091
       6 -> 20        -0.00528
       6 -> 23        -0.00556
       6 -> 25         0.00458
       6 -> 33         0.00113
       6 -> 36        -0.00141
       6 -> 38         0.00018
       7 -> 11        -0.01858
       7 -> 17         0.00150
       7 -> 21        -0.00442
       7 -> 31         0.00239
       8 ->  9         0.71910
       8 -> 18        -0.04839
       8 -> 34        -0.00411
       3 <- 12         0.01355
       3 <- 14         0.00713
       3 <- 20         0.01226
       3 <- 23        -0.00444
       3 <- 25        -0.00205
       3 <- 33        -0.00591
       3 <- 36        -0.00189
       3 <- 38        -0.00010
       4 <- 10         0.01385
       4 <- 15        -0.00328
       4 <- 19         0.00805
       4 <- 24        -0.00603
       4 <- 30         0.00644
       4 <- 32        -0.00345
       4 <- 37         0.00010
       5 <- 13         0.00716
       5 <- 22        -0.00387
       5 <- 26         0.00350
       5 <- 35         0.00033
       6 <- 12         0.00432
       6 <- 14        -0.00609
       6 <- 20        -0.00284
       6 <- 23        -0.00451
       6 <- 25         0.00367
       6 <- 33         0.00062
       6 <- 36        -0.00136
       6 <- 38         0.00014
       7 <- 11        -0.00923
       7 <- 17         0.00137
       7 <- 21        -0.00329
       7 <- 31         0.00200
       8 <-  9         0.14156
       8 <- 18        -0.02822
       8 <- 34        -0.00291
 This state for optimization and/or second-order correction.
 Total Energy, E(TD-HF/TD-DFT) =  -78.4367406766
 Copying the excited state density for this state as the 1-particle RhoCI density.

 Excited State   2:      Triplet-B1G    7.9195 eV  156.56 nm  f=0.0000  <S**2>=2.000
       3 -> 28         0.00773
       4 -> 29         0.00872
       5 -> 16         0.01082
       5 -> 27         0.00754
       6 -> 28         0.00327
       7 ->  9         0.70373
       7 -> 18        -0.01851
       7 -> 34         0.00140
       8 -> 11        -0.06683
       8 -> 17        -0.00332
       8 -> 21        -0.00597
       8 -> 31         0.00249
       3 <- 28         0.00557
       4 <- 29         0.00592
       5 <- 16         0.00303
       5 <- 27         0.00199
       6 <- 28         0.00169
       7 <-  9         0.01497
       7 <- 18        -0.00285
       7 <- 34         0.00072
       8 <- 11        -0.00611
       8 <- 17        -0.00694
       8 <- 21        -0.00287
       8 <- 31         0.00333

 Excited State   3:      Singlet-B1U    8.3134 eV  149.14 nm  f=0.3513  <S**2>=0.000
       3 -> 12        -0.03122
       3 -> 14        -0.01933
       3 -> 20        -0.01476
       3 -> 23        -0.00142
       3 -> 25         0.01371
       3 -> 33         0.00075
       3 -> 36        -0.00247
       3 -> 38        -0.00047
       4 -> 10        -0.05812
       4 -> 15        -0.00028
       4 -> 19         0.00842
       4 -> 24         0.01032
       4 -> 30        -0.00097
       4 -> 32         0.00025
       4 -> 37        -0.00068
       5 -> 13        -0.05408
       5 -> 22         0.01277
       5 -> 26         0.00201
       5 -> 35        -0.00179
       6 -> 12         0.00088
       6 -> 14         0.07306
       6 -> 20         0.04530
       6 -> 23         0.01574
       6 -> 25        -0.01420
       6 -> 33        -0.00078
       6 -> 36         0.00236
       7 -> 11        -0.02147
       7 -> 17         0.04679
       7 -> 21        -0.00136
       7 -> 31        -0.00742
       8 ->  9         0.70406
       8 -> 18         0.02567
       8 -> 34        -0.00057
       3 <- 12        -0.01551
       3 <- 14        -0.01116
       3 <- 20        -0.01110
       3 <- 23        -0.00061
       3 <- 25         0.00873
       3 <- 33         0.00120
       3 <- 36        -0.00175
       3 <- 38        -0.00035
       4 <- 10        -0.01987
       4 <- 15        -0.00114
       4 <- 19         0.00627
       4 <- 24         0.00661
       4 <- 30        -0.00011
       4 <- 32         0.00031
       4 <- 37        -0.00064
       5 <- 13        -0.01954
       5 <- 22         0.00746
       5 <- 26         0.00101
       5 <- 35        -0.00138
       6 <- 12         0.00173
       6 <- 14         0.02853
       6 <- 20         0.02547
       6 <- 23         0.00904
       6 <- 25        -0.00890
       6 <- 33        -0.00110
       6 <- 36         0.00172
       7 <- 11        -0.00471
       7 <- 17         0.02210
       7 <- 21        -0.00061
       7 <- 31        -0.00541
       8 <-  9        -0.10645
       8 <- 18         0.01824
       8 <- 34         0.00043

 Excited State   4:      Singlet-B1G    8.4728 eV  146.33 nm  f=0.0000  <S**2>=0.000
       3 -> 28        -0.00394
       4 -> 29        -0.00143
       5 -> 16         0.00718
       5 -> 27         0.00457
       6 -> 28         0.00125
       7 ->  9         0.70167
       7 -> 18        -0.01454
       7 -> 34         0.00023
       8 -> 11         0.08643
       8 -> 17        -0.00738
       8 -> 21         0.00202
       8 -> 31        -0.00024
       3 <- 28        -0.00326
       4 <- 29        -0.00188
       5 <- 16         0.00022
       5 <- 27        -0.00010
       6 <- 28         0.00037
       7 <-  9        -0.00871
       7 <- 34        -0.00017
       8 <- 11         0.00430
       8 <- 17        -0.00828
       8 <- 21        -0.00027
       8 <- 31         0.00100

 Excited State   5:      Triplet-B3U    8.8294 eV  140.42 nm  f=0.0000  <S**2>=2.000
       3 -> 16         0.00650
       3 -> 27         0.00453
       4 ->  9         0.05113
       4 -> 18        -0.00879
       4 -> 34         0.00339
       5 -> 28         0.00238
       6 -> 16         0.00430
       6 -> 27         0.00479
       7 -> 29         0.00248
       8 -> 10         0.70515
       8 -> 15        -0.00604
       8 -> 19         0.00624
       8 -> 24        -0.01852
       8 -> 30         0.00671
       8 -> 32        -0.00262
       8 -> 37         0.00047
       3 <- 16         0.00385
       3 <- 27         0.00276
       4 <-  9         0.01620
       4 <- 18        -0.00592
       4 <- 34         0.00251
       5 <- 28         0.00094
       6 <- 16         0.00414
       6 <- 27         0.00339
       7 <- 29         0.00150
       8 <- 10         0.01091
       8 <- 15        -0.00183
       8 <- 19         0.00304
       8 <- 24        -0.00427
       8 <- 30         0.00423
       8 <- 32        -0.00174
       8 <- 37         0.00010

 Excited State   6:      Triplet-B1G    9.2033 eV  134.72 nm  f=0.0000  <S**2>=2.000
       3 -> 28        -0.00690
       4 -> 29        -0.00255
       5 -> 16        -0.00583
       5 -> 27         0.00247
       6 -> 28         0.00366
       7 ->  9         0.06705
       7 -> 18         0.00596
       7 -> 34         0.00110
       8 -> 11         0.70354
       8 -> 17        -0.00783
       8 -> 21         0.02314
       8 -> 31         0.00260
       3 <- 28        -0.00481
       4 <- 29        -0.00160
       5 <- 16        -0.00624
       5 <- 27         0.00238
       6 <- 28         0.00336
       7 <-  9        -0.00372
       7 <- 18         0.00477
       7 <- 34         0.00106
       8 <- 11         0.00859
       8 <- 17        -0.00189
       8 <- 21         0.00297
       8 <- 31         0.00078

 Excited State   7:      Triplet-B2G    9.2429 eV  134.14 nm  f=0.0000  <S**2>=2.000
       3 ->  9        -0.01758
       3 -> 18         0.00955
       3 -> 34         0.00804
       4 -> 16         0.00503
       4 -> 27         0.01298
       5 -> 29         0.00129
       6 ->  9         0.70520
       6 -> 18        -0.03146
       6 -> 34         0.00021
       7 -> 28         0.00260
       8 -> 12         0.00605
       8 -> 14        -0.03898
       8 -> 20        -0.01677
       8 -> 23        -0.00740
       8 -> 25         0.00684
       8 -> 33         0.00195
       8 -> 36        -0.00149
       8 -> 38         0.00037
       3 <-  9         0.00054
       3 <- 18         0.00287
       3 <- 34         0.00562
       4 <- 16         0.00012
       4 <- 27         0.00775
       5 <- 29         0.00040
       6 <-  9         0.01810
       6 <- 18        -0.00541
       6 <- 34         0.00083
       7 <- 28         0.00080
       8 <- 12         0.00166
       8 <- 14        -0.01433
       8 <- 20        -0.01267
       8 <- 23        -0.00638
       8 <- 25         0.00560
       8 <- 33         0.00147
       8 <- 36        -0.00171
       8 <- 38         0.00029

 Excited State   8:      Singlet-B3U    9.2487 eV  134.06 nm  f=0.0002  <S**2>=0.000
       3 -> 16        -0.00337
       3 -> 27         0.00101
       4 ->  9        -0.04821
       4 -> 18         0.00397
       4 -> 34        -0.00147
       5 -> 28        -0.00542
       6 -> 16         0.00236
       6 -> 27        -0.00731
       7 -> 29        -0.00454
       8 -> 10         0.70536
       8 -> 15         0.00404
       8 -> 19        -0.00910
       8 -> 24        -0.00807
       8 -> 30        -0.00347
       8 -> 32         0.00134
       8 -> 37         0.00028
       3 <- 16        -0.00158
       3 <- 27         0.00035
       4 <-  9        -0.00631
       4 <- 18         0.00038
       4 <- 34        -0.00128
       5 <- 28        -0.00439
       6 <- 16         0.00343
       6 <- 27        -0.00453
       7 <- 29        -0.00334
       8 <- 10        -0.00595
       8 <- 15         0.00166
       8 <- 19        -0.00339
       8 <- 24         0.00196
       8 <- 30        -0.00305
       8 <- 32         0.00115
       8 <- 37        -0.00010

 Excited State   9:      Singlet-B1G    9.5379 eV  129.99 nm  f=0.0000  <S**2>=0.000
       3 -> 28         0.00257
       4 -> 29         0.00221
       5 -> 16        -0.00132
       5 -> 27        -0.00070
       6 -> 28        -0.00021
       7 ->  9        -0.08653
       7 -> 18         0.00197
       8 -> 11         0.70164
       8 -> 17         0.00123
       8 -> 21         0.01678
       8 -> 31         0.00170
       3 <- 28         0.00217
       4 <- 29         0.00210
       5 <- 16        -0.00352
       5 <- 27         0.00098
       6 <- 28         0.00075
       7 <-  9         0.00592
       7 <- 18         0.00135
       7 <- 34         0.00026
       8 <- 11        -0.00384
       8 <- 17         0.00280
       8 <- 21        -0.00053
       8 <- 31        -0.00012

 Excited State  10:      Singlet-B2G    9.8952 eV  125.30 nm  f=0.0000  <S**2>=0.000
       3 ->  9        -0.02945
       6 ->  9         0.66855
       8 -> 12        -0.22856
       8 -> 14        -0.00212
       3 <-  9        -0.00349
       6 <-  9        -0.00569
       8 <- 12        -0.00106
       8 <- 14        -0.00512

 The electronic state is 1-AG.
 Alpha  occ. eigenvalues --  -10.18424 -10.18335  -0.75478  -0.57750  -0.46454
 Alpha  occ. eigenvalues --   -0.41669  -0.35310  -0.26667
 Alpha virt. eigenvalues --    0.01881   0.12257   0.14024   0.15756   0.24412
 Alpha virt. eigenvalues --    0.33263   0.48036   0.54843   0.56812   0.63728
 Alpha virt. eigenvalues --    0.65546   0.69905   0.84753   0.87229   0.93210

 Mulliken charges:
               1
     1  C   -0.285496
     2  C   -0.285496
     3  H    0.142748
     4  H    0.142748
     5  H    0.142748
     6  H    0.142748
 Sum of Mulliken charges =  -0.00000

 Dipole moment (field-independent basis, Debye):
    X=             -0.0000    Y=              0.0000    Z=              0.0000  Tot=              0.0000
 Quadrupole moment (field-independent basis, Debye-Ang):
   XX=            -15.0296   YY=            -12.1241   ZZ=            -11.9889
   XY=              0.0000   XZ=             -0.0000   YZ=             -0.0000

 Normal termination of Gaussian 16 at Sat Apr  6 18:28:35 2024.
